[Molden Format]
[Atoms] AU
C  1 6   3.03542601   2.86130826  -3.50319157
C  2 6   3.45739698   4.06869416  -5.53734955
H  3 1   1.48277569   3.50820064  -2.31696202
H  4 1   3.90385503   1.10712411  -2.93345131
H  5 1   2.63828623   5.76224954  -5.94080147
H  6 1   4.51221740   3.54962044  -7.09831515
[GTO]
1
s 6
    3.047524902344e+03     1.834737136960e-03
    4.573695068359e+02     1.403732318431e-02
    1.039486846924e+02     6.884261965752e-02
    2.921015548706e+01     2.321844398975e-01
    9.286663055420e+00     4.679413437843e-01
    3.163927078247e+00     3.623119890690e-01
s 3
    7.868272304535e+00    -1.193324178457e-01
    1.881288528442e+00    -1.608541458845e-01
    5.442492365837e-01     1.143456459045e+00
p 3
    7.868272304535e+00     6.899906694889e-02
    1.881288528442e+00     3.164239525795e-01
    5.442492365837e-01     7.443082928658e-01
s 1
    1.687144786119e-01     1.000000000000e+00
p 1
    1.687144786119e-01     1.000000000000e+00
d 1
    8.000000119209e-01     1.000000000000e+00

2
s 6
    3.047524902344e+03     1.834737136960e-03
    4.573695068359e+02     1.403732318431e-02
    1.039486846924e+02     6.884261965752e-02
    2.921015548706e+01     2.321844398975e-01
    9.286663055420e+00     4.679413437843e-01
    3.163927078247e+00     3.623119890690e-01
s 3
    7.868272304535e+00    -1.193324178457e-01
    1.881288528442e+00    -1.608541458845e-01
    5.442492365837e-01     1.143456459045e+00
p 3
    7.868272304535e+00     6.899906694889e-02
    1.881288528442e+00     3.164239525795e-01
    5.442492365837e-01     7.443082928658e-01
s 1
    1.687144786119e-01     1.000000000000e+00
p 1
    1.687144786119e-01     1.000000000000e+00
d 1
    8.000000119209e-01     1.000000000000e+00

3
s 3
    1.873113632202e+01     3.349460288882e-02
    2.825394392014e+00     2.347269505262e-01
    6.401216983795e-01     8.137573003769e-01
s 1
    1.612777560949e-01     1.000000000000e+00

4
s 3
    1.873113632202e+01     3.349460288882e-02
    2.825394392014e+00     2.347269505262e-01
    6.401216983795e-01     8.137573003769e-01
s 1
    1.612777560949e-01     1.000000000000e+00

5
s 3
    1.873113632202e+01     3.349460288882e-02
    2.825394392014e+00     2.347269505262e-01
    6.401216983795e-01     8.137573003769e-01
s 1
    1.612777560949e-01     1.000000000000e+00

6
s 3
    1.873113632202e+01     3.349460288882e-02
    2.825394392014e+00     2.347269505262e-01
    6.401216983795e-01     8.137573003769e-01
s 1
    1.612777560949e-01     1.000000000000e+00

[MO]
Sym= C1
Ene=    -10.58153380
Spin= Alpha
Occup=      1.00000000
1      0.99148983
2      0.04353232
3      0.00004065
4      0.00040352
5     -0.00072883
6     -0.01271367
7      0.00011532
8     -0.00074266
9      0.00113927
10     -0.00749603
11     -0.00733894
12     -0.00713259
13      0.00030620
14      0.00015953
15     -0.00013503
16      0.06066250
17      0.00222375
18      0.00008520
19      0.00023343
20     -0.00040323
21      0.00418206
22     -0.00040084
23     -0.00098657
24      0.00166508
25     -0.00071042
26     -0.00073740
27     -0.00080223
28      0.00001152
29      0.00004756
30      0.00005890
31     -0.00007580
32      0.00215489
33     -0.00018200
34      0.00191582
35     -0.00005911
36      0.00015029
37     -0.00007088
38      0.00019715
Sym= C1
Ene=    -10.56831015
Spin= Alpha
Occup=      1.00000000
1     -0.06144394
2     -0.00316413
3     -0.00009070
4     -0.00030204
5      0.00049900
6      0.00517552
7      0.00025056
8      0.00098543
9     -0.00160189
10      0.00023144
11      0.00016258
12      0.00008529
13     -0.00001763
14      0.00002895
15      0.00009764
16      0.99143507
17      0.04420500
18     -0.00023623
19     -0.00033100
20      0.00059857
21     -0.01329490
22      0.00043534
23      0.00029133
24     -0.00078726
25     -0.00749182
26     -0.00760294
27     -0.00725741
28      0.00026884
29      0.00004313
30     -0.00024820
31     -0.00004646
32     -0.00009643
33     -0.00004049
34     -0.00004553
35     -0.00011502
36      0.00244844
37     -0.00017683
38      0.00215320
Sym= C1
Ene=     -0.92776038
Spin= Alpha
Occup=      1.00000000
1      0.16164744
2     -0.30716327
3     -0.01655533
4     -0.06706951
5      0.11025137
6     -0.23015415
7      0.00214097
8     -0.00451942
9      0.00597381
10      0.00580921
11      0.00096469
12     -0.00538255
13     -0.00032750
14      0.00252038
15      0.00782374
16      0.16885485
17     -0.31942227
18      0.02812395
19      0.05478192
20     -0.09910439
21     -0.23270339
22      0.00245509
23     -0.00118169
24      0.00066119
25      0.00497961
26      0.00193147
27     -0.00525806
28     -0.00093369
29      0.00360511
30      0.00827425
31     -0.07271361
32     -0.00489237
33     -0.06728775
34     -0.00436201
35     -0.08373001
36     -0.00435806
37     -0.07584290
38     -0.00324002
Sym= C1
Ene=     -0.69600191
Spin= Alpha
Occup=      1.00000000
1      0.12954726
2     -0.24907553
3      0.02689014
4      0.07217619
5     -0.10934997
6     -0.31065680
7      0.00783006
8      0.01912311
9     -0.02667146
10     -0.00436322
11     -0.00396353
12      0.00784524
13      0.00786930
14      0.00027276
15     -0.00584027
16     -0.12152062
17      0.23348315
18      0.02827767
19      0.11170061
20     -0.17794577
21      0.29607888
22      0.00651779
23      0.02584731
24     -0.04365097
25      0.00391134
26      0.00361281
27     -0.00440347
28     -0.00875277
29     -0.00182595
30      0.00810975
31     -0.12390749
32     -0.04586043
33     -0.13373102
34     -0.04966917
35      0.15138619
36      0.05486935
37      0.15064085
38      0.05474564
Sym= C1
Ene=     -0.55434997
Spin= Alpha
Occup=      1.00000000
1      0.00377912
2     -0.00800600
3     -0.21655878
4      0.25397890
5      0.05615216
6     -0.01666778
7     -0.08793357
8      0.10462943
9      0.02484849
10      0.00355679
11     -0.00269751
12     -0.00110410
13     -0.00009238
14     -0.00253026
15      0.00033902
16      0.00491911
17     -0.01031116
18     -0.22620607
19      0.22389904
20      0.13635343
21     -0.02096362
22     -0.08855879
23      0.08454145
24      0.05207059
25      0.00055757
26      0.00361998
27     -0.00534994
28     -0.00195881
29      0.00225001
30     -0.00305956
31      0.13774934
32      0.08667762
33     -0.15467889
34     -0.09407194
35      0.13653689
36      0.08678927
37     -0.15904623
38     -0.09901783
Sym= C1
Ene=     -0.52078091
Spin= Alpha
Occup=      1.00000000
1     -0.00297854
2      0.00043688
3     -0.11295877
4     -0.20309959
5      0.35681626
6      0.07319055
7     -0.04063306
8     -0.06284867
9      0.11362284
10      0.01302778
11      0.01026076
12     -0.01048720
13     -0.01439855
14     -0.00013828
15      0.01113241
16      0.01932527
17     -0.04014010
18      0.02339428
19      0.22602587
20     -0.33143726
21     -0.01561576
22      0.00363491
23      0.07455071
24     -0.10776041
25      0.00803292
26      0.00972416
27     -0.00311919
28     -0.01122485
29     -0.00242893
30      0.00924862
31      0.13730465
32      0.10517199
33      0.13298768
34      0.10086118
35      0.12943876
36      0.09766560
37      0.10234596
38      0.07754815
Sym= C1
Ene=     -0.43112353
Spin= Alpha
Occup=      1.00000000
1      0.00365696
2     -0.00874814
3     -0.36232018
4     -0.06408982
5     -0.14098891
6     -0.01502121
7     -0.20153437
8     -0.04576586
9     -0.08408788
10      0.00305538
11     -0.01763954
12      0.01548233
13     -0.00480737
14     -0.00195176
15      0.01074140
16      0.00165560
17     -0.00488110
18     -0.16252430
19     -0.29966918
20     -0.19951097
21     -0.00786627
22     -0.10640541
23     -0.16171477
24     -0.11203093
25      0.00589934
26     -0.00613837
27      0.00048262
28      0.01120695
29     -0.01752151
30      0.00415776
31      0.11055329
32      0.09586186
33     -0.10099323
34     -0.08790655
35     -0.10895983
36     -0.09488592
37      0.10380542
38      0.09052434
Sym= C1
Ene=     -0.40050050
Spin= Alpha
Occup=      1.00000000
1      0.00345502
2     -0.00761850
3      0.01779821
4     -0.29901024
5     -0.19465210
6     -0.02087519
7      0.00671601
8     -0.18431210
9     -0.11942515
10     -0.01173612
11      0.01191224
12      0.00007222
13     -0.00800700
14      0.02191296
15     -0.01170384
16     -0.00130742
17      0.00346286
18     -0.35309015
19      0.06988377
20      0.00116688
21      0.00087884
22     -0.21420454
23      0.03562983
24     -0.00820182
25     -0.00127943
26      0.02166342
27     -0.02116352
28     -0.00288586
29      0.01185630
30     -0.01410539
31     -0.16408018
32     -0.14751072
33      0.15079127
34      0.13398689
35      0.15807764
36      0.13746303
37     -0.15825846
38     -0.14397439
Sym= C1
Ene=     -0.14603620
Spin= Alpha
Occup=      1.00000000
1     -0.00830628
2      0.01886692
3      0.30685859
4      0.24707723
5      0.22705730
6      0.04438960
7      0.40010798
8      0.31837468
9      0.30668891
10     -0.00736077
11     -0.00749950
12      0.01296750
13     -0.01014302
14      0.01597549
15      0.00314743
16      0.00474620
17     -0.01096165
18     -0.35730127
19     -0.20807175
20     -0.19103578
21     -0.01353454
22     -0.47698592
23     -0.27392522
24     -0.23919652
25     -0.00426953
26     -0.01429272
27      0.01943897
28     -0.01067817
29      0.01103682
30      0.00627963
31     -0.03429815
32     -0.07201706
33      0.00543547
34      0.01335774
35     -0.01388184
36     -0.03565753
37      0.02720908
38      0.05833587
Sym= C1
Ene=      0.17186772
Spin= Alpha
Occup=      0.00000000
1      0.09560137
2     -0.12969226
3      0.12021400
4      0.03734160
5     -0.15315135
6     -1.78460564
7      0.36780771
8      0.17459482
9     -0.50246841
10      0.00761152
11      0.00212894
12      0.00601953
13     -0.00896902
14     -0.01061319
15      0.00377028
16      0.04762528
17     -0.07121296
18      0.02112462
19     -0.11841886
20      0.07694146
21     -1.03461198
22     -0.00466705
23     -0.51088177
24      0.46747464
25      0.00363471
26      0.00754187
27     -0.00510035
28     -0.01131748
29      0.00329972
30      0.00098400
31      0.06189585
32      1.44975251
33      0.01807265
34      0.86122509
35      0.02278888
36      1.11005293
37     -0.01674654
38      0.52931346
Sym= C1
Ene=      0.19146242
Spin= Alpha
Occup=      0.00000000
1     -0.03122128
2      0.03934041
3      0.19482328
4     -0.22229523
5      0.00239979
6      0.61802452
7      0.55816734
8     -0.61630723
9      0.05089854
10      0.00680238
11     -0.02165744
12      0.00991081
13      0.00736066
14     -0.01401638
15      0.01596916
16     -0.01049291
17      0.00962354
18      0.13911341
19     -0.15399501
20     -0.13516830
21      0.30481031
22      0.30832728
23     -0.34896742
24     -0.41507213
25     -0.00528493
26      0.01744846
27     -0.01279173
28     -0.00580291
29      0.02141860
30     -0.01459895
31      0.05192253
32      0.69915042
33     -0.08207936
34     -1.47473577
35      0.06444342
36      0.71323950
37     -0.07099291
38     -1.17465225
Sym= C1
Ene=      0.20972915
Spin= Alpha
Occup=      0.00000000
1     -0.09046661
2      0.10787229
3     -0.01869499
4     -0.04155289
5      0.03004347
6      1.55765116
7     -0.00079147
8     -0.04523061
9     -0.12618011
10     -0.00469435
11     -0.00028625
12     -0.01061819
13     -0.00042953
14      0.00349451
15      0.00678802
16      0.12287209
17     -0.14613392
18     -0.02207467
19     -0.04106444
20      0.12135999
21     -2.47081506
22     -0.04741910
23     -0.07258881
24      0.33645021
25      0.00078834
26      0.00965569
27      0.01103763
28      0.00051883
29     -0.00343874
30     -0.00523938
31     -0.03682073
32     -0.69626648
33     -0.03293563
34     -0.80321530
35      0.02365022
36      1.25743019
37      0.02612833
38      1.45493931
Sym= C1
Ene=      0.30165897
Spin= Alpha
Occup=      0.00000000
1     -0.00499338
2     -0.00859308
3     -0.20440704
4      0.17279945
5      0.06614021
6      0.28146102
7     -1.16728198
8      1.30609996
9      0.30467740
10      0.00191586
11     -0.01350546
12      0.01069428
13      0.00163855
14     -0.01056582
15      0.00848379
16      0.00641742
17      0.00563593
18      0.17055510
19     -0.23772438
20     -0.09472420
21     -0.40452339
22      1.19416681
23     -1.28653218
24     -0.68340506
25      0.00277683
26     -0.00524866
27      0.00364486
28      0.00602847
29     -0.00863378
30      0.00713980
31      0.02333819
32     -1.52682869
33     -0.03968415
34      1.44801270
35     -0.02187707
36      1.87336587
37      0.02023022
38     -1.63665165
Sym= C1
Ene=      0.40253491
Spin= Alpha
Occup=      0.00000000
1      0.06703791
2     -0.01361302
3     -0.04006148
4     -0.09140998
5      0.11909825
6     -3.77232465
7     -0.58907163
8     -1.72593724
9      2.77777384
10     -0.01166153
11     -0.00444988
12      0.00997189
13      0.01817675
14      0.00426769
15     -0.00766451
16     -0.06319175
17      0.00762487
18     -0.02706901
19     -0.08723828
20      0.15923321
21      3.49511780
22     -0.57318465
23     -1.67535167
24      2.91083933
25      0.00371240
26      0.00848981
27     -0.01028772
28     -0.00919738
29     -0.00291846
30      0.01192141
31     -0.10150814
32     -0.50077731
33     -0.06229477
34     -0.75882456
35      0.05289994
36      0.75312107
37      0.01848099
38      0.93519151
Sym= C1
Ene=      0.51641158
Spin= Alpha
Occup=      0.00000000
1     -0.02002630
2     -0.28975234
3     -0.14222390
4     -0.20484641
5      0.48283792
6     -0.30564901
7      0.18023737
8      0.40028429
9     -0.74568704
10      0.01160348
11     -0.00644586
12     -0.04773172
13     -0.01490300
14      0.00847029
15      0.04135879
16     -0.02425273
17     -0.30915422
18      0.05260399
19      0.30695343
20     -0.38978971
21      0.00342449
22     -0.16815605
23     -0.70276021
24      1.02303796
25      0.00801997
26     -0.01113781
27     -0.05744004
28     -0.01712972
29      0.01260829
30      0.04746518
31      0.08123993
32     -0.05557152
33     -0.00943460
34      0.12453814
35      0.07984225
36      0.15215628
37     -0.01501959
38      0.25859059
Sym= C1
Ene=      0.57468752
Spin= Alpha
Occup=      0.00000000
1      0.00083875
2     -0.03924914
3     -0.47451083
4     -0.40208595
5     -0.34295959
6      0.04261128
7      0.47515862
8      0.40157185
9      0.26358867
10     -0.01556152
11     -0.02827383
12      0.03526245
13     -0.03136062
14      0.03494925
15      0.01351283
16      0.00133950
17     -0.02704754
18     -0.55418736
19     -0.29458806
20     -0.30179099
21     -0.03463516
22      0.50538897
23      0.29674081
24      0.26738465
25      0.01243247
26      0.02671360
27     -0.04459379
28      0.02705866
29     -0.03214804
30     -0.01275613
31      0.00196686
32      0.07659811
33      0.00282836
34     -0.00668662
35      0.00311290
36     -0.05049402
37     -0.00283299
38      0.05105330
Sym= C1
Ene=      0.61988435
Spin= Alpha
Occup=      0.00000000
1      0.00271282
2      0.04066845
3      0.18170298
4     -0.34496466
5     -0.03832584
6     -0.33057052
7     -0.34404390
8      0.51247867
9     -0.01781522
10     -0.01864735
11      0.06162553
12     -0.02607687
13     -0.01893461
14      0.04154492
15     -0.03223491
16     -0.00576187
17      0.02309732
18      0.33882643
19     -0.25321819
20     -0.16536110
21     -0.09614437
22     -0.67453507
23      0.53355451
24      0.57079729
25      0.01569698
26     -0.04026904
27      0.03060090
28      0.01427654
29     -0.04524863
30      0.04583742
31     -0.28534240
32     -0.01625323
33      0.40448101
34      0.08439862
35     -0.35824846
36     -0.09938680
37      0.41208771
38      0.24992361
Sym= C1
Ene=      0.67678715
Spin= Alpha
Occup=      0.00000000
1      0.00006263
2      0.01565781
3      0.53436994
4      0.38017833
5      0.37647088
6     -0.07519973
7     -0.87741591
8     -0.62357889
9     -0.51823214
10     -0.01053782
11      0.00133332
12      0.01450452
13     -0.01047472
14      0.02299791
15     -0.00473197
16     -0.00113829
17     -0.00752159
18     -0.58555408
19     -0.38091385
20     -0.32831196
21      0.04117476
22      0.87625483
23      0.57552775
24      0.60384763
25     -0.00140539
26     -0.02029013
27      0.01787925
28     -0.00821204
29      0.00415333
30      0.01563002
31     -0.05248028
32      0.01204565
33      0.03794734
34     -0.04823614
35     -0.04017405
36      0.05032046
37      0.04468498
38      0.01270940
Sym= C1
Ene=      0.72320423
Spin= Alpha
Occup=      0.00000000
1     -0.03803556
2     -0.75066524
3      0.04132093
4      0.00178466
5     -0.05608674
6      1.89260437
7     -0.12452975
8     -0.07413351
9      0.15271614
10     -0.05282914
11     -0.07438230
12     -0.04634541
13      0.10311062
14      0.07500605
15      0.02557723
16     -0.03280034
17     -0.77447356
18      0.03526120
19     -0.05613461
20      0.04813335
21      1.49771527
22      0.01832016
23      0.62742134
24     -0.77771087
25     -0.01955885
26     -0.08132983
27     -0.05844866
28      0.09947335
29      0.06303609
30      0.01331612
31     -0.44029132
32     -0.19334514
33     -0.36703695
34     -0.17474435
35     -0.41841760
36     -0.60446620
37     -0.34079163
38     -0.45300816
Sym= C1
Ene=      0.79337926
Spin= Alpha
Occup=      0.00000000
1     -0.08863408
2     -0.05885672
3      0.16508000
4      0.20601536
5     -0.47525481
6      0.70189641
7     -0.28804005
8     -0.15065515
9      0.42474305
10      0.00668690
11     -0.03767448
12     -0.10346803
13      0.06560481
14      0.08080719
15      0.12136310
16      0.08947937
17      0.10159137
18      0.07935656
19      0.31670213
20     -0.47528747
21     -1.11972719
22     -0.01811462
23     -0.42659040
24      0.65075694
25     -0.05287780
26      0.05259385
27      0.12334174
28     -0.04793576
29     -0.08835814
30     -0.09381137
31     -0.37879922
32     -0.18190941
33     -0.43244980
34      0.05655932
35      0.34033998
36      0.36378214
37      0.43110865
38      0.21799767
Sym= C1
Ene=      0.92307832
Spin= Alpha
Occup=      0.00000000
1      0.00249183
2     -0.06234830
3      0.63581278
4     -0.56298201
5     -0.18946945
6      0.11650197
7     -1.35497304
8      1.29562945
9      0.32986062
10      0.04178115
11     -0.10310370
12      0.05870769
13      0.01864128
14     -0.11019681
15      0.08179444
16     -0.00461621
17     -0.03220153
18      0.20049893
19     -0.28207985
20     -0.13439872
21     -0.02470749
22     -0.08566581
23      0.21883561
24      0.13187264
25     -0.03338939
26      0.10880538
27     -0.08296996
28     -0.03779490
29      0.11204534
30     -0.07025586
31      0.48170681
32     -1.55923408
33     -0.35755954
34      1.43778863
35      0.30395875
36     -0.66006921
37     -0.32691462
38      0.67217112
Sym= C1
Ene=      0.98852667
Spin= Alpha
Occup=      0.00000000
1     -0.00223965
2     -0.07870961
3     -0.48776230
4      0.51625652
5      0.12342841
6     -0.06720046
7      1.80316811
8     -2.09956674
9     -0.40234803
10      0.02582031
11     -0.06410944
12      0.01213830
13      0.01826223
14     -0.03864557
15      0.03765957
16      0.00169376
17      0.10227920
18      0.60709039
19     -0.72255884
20     -0.39233799
21      0.06461901
22     -2.07119745
23      2.21289276
24      1.35679886
25     -0.00555976
26      0.04638771
27     -0.01022806
28     -0.01633586
29      0.03231432
30     -0.03553810
31      0.00033809
32      1.09015160
33     -0.01402315
34     -1.32517104
35      0.26649454
36     -1.82288450
37     -0.26193244
38      2.05504815
Sym= C1
Ene=      1.03375399
Spin= Alpha
Occup=      0.00000000
1     -0.01820418
2      1.09960475
3     -0.14728054
4     -0.37623357
5      0.55155634
6     -1.97868925
7      0.21144764
8      0.71300712
9     -0.93932275
10      0.01811462
11      0.01302959
12      0.16259564
13      0.13466318
14      0.03883982
15     -0.03436232
16     -0.00336166
17      0.31825392
18      0.01076017
19     -0.11330596
20      0.12144408
21     -0.67576901
22      0.05083338
23      0.23813026
24     -0.37278764
25      0.02602239
26      0.02353835
27     -0.03770319
28     -0.00360709
29      0.01436762
30      0.01199550
31     -0.60925430
32      1.28946041
33     -0.62481887
34      1.48888332
35      0.03287228
36     -0.16167552
37     -0.07762860
38      0.02942321
Sym= C1
Ene=      1.11211277
Spin= Alpha
Occup=      0.00000000
1      0.00323324
2     -0.08793394
3     -0.06104634
4     -0.05980466
5      0.13368073
6     -0.05441960
7      0.17905614
8     -0.02721640
9     -0.19192276
10      0.00211477
11     -0.00066722
12      0.02168452
13      0.00747235
14     -0.02128066
15     -0.02453184
16      0.01776415
17     -1.21216545
18     -0.05156616
19     -0.39696784
20      0.57045984
21      2.62366670
22     -0.03288796
23      0.65715702
24     -0.76597619
25     -0.08062152
26     -0.02221861
27     -0.10957248
28     -0.15719389
29     -0.07311088
30      0.06640692
31     -0.00159927
32      0.20783574
33     -0.02744413
34      0.05529687
35      0.65629964
36     -1.55270887
37      0.66055708
38     -1.31757756
Sym= C1
Ene=      1.19237095
Spin= Alpha
Occup=      0.00000000
1      0.02324015
2      1.47001940
3      0.03970483
4      0.22164075
5     -0.31321801
6     -5.79653627
7     -0.39735700
8     -1.04833429
9      1.90558737
10      0.12359104
11      0.08435033
12     -0.04969647
13     -0.10311465
14      0.01574646
15      0.08942481
16     -0.02377721
17     -1.35807546
18      0.10357286
19      0.17334373
20     -0.37264893
21      5.68959567
22     -0.37389452
23     -1.14202146
24      1.82981206
25     -0.08154351
26     -0.08148626
27      0.02672846
28      0.09099956
29      0.01987067
30     -0.13765301
31      0.05147475
32      0.29555057
33      0.23273217
34      0.17213659
35     -0.09774308
36     -0.26362676
37     -0.29422818
38     -0.09528921
Sym= C1
Ene=      1.25113555
Spin= Alpha
Occup=      0.00000000
1      0.01414411
2      0.26824351
3     -0.05241022
4     -0.02059451
5      0.00145836
6     -1.58172319
7      1.47741226
8     -2.08162716
9      0.14181811
10      0.16388243
11     -0.08911150
12     -0.04053815
13      0.04376412
14     -0.14174864
15      0.00854665
16     -0.01472436
17     -0.15295231
18     -0.09087015
19      0.04272532
20     -0.00208185
21      1.48733112
22     -1.53084572
23      1.17877039
24      1.39664160
25     -0.00385119
26     -0.15987103
27      0.15044126
28      0.02627303
29      0.00214092
30      0.07208502
31      0.69233759
32      0.53716150
33     -0.68753752
34     -0.60224109
35     -0.68660598
36     -0.49803003
37      0.58214854
38      0.64836185
Sym= C1
Ene=      1.53966808
Spin= Alpha
Occup=      0.00000000
1     -0.00221919
2      0.00612256
3     -0.13855195
4     -0.10241884
5     -0.08929580
6      0.14879487
7     -0.33144228
8      0.52428564
9      0.03017913
10     -0.01495707
11      0.37370920
12     -0.36178085
13      0.32676194
14     -0.29171485
15     -0.05977409
16      0.00071636
17      0.01725306
18     -0.14147803
19     -0.08362505
20     -0.09424919
21     -0.21206854
22      0.42925027
23     -0.32175553
24     -0.27562359
25     -0.23048213
26     -0.16014652
27      0.38910749
28     -0.23721558
29      0.37443158
30      0.13628183
31     -0.15552185
32     -0.12094826
33      0.14279458
34      0.21946638
35      0.11447817
36      0.18980501
37     -0.14590448
38     -0.20627067
Sym= C1
Ene=      1.58801566
Spin= Alpha
Occup=      0.00000000
1     -0.00718029
2     -0.08208542
3      0.00754854
4     -0.04974262
5     -0.02975494
6      0.41737174
7     -0.29833749
8      0.39648052
9     -0.00039384
10      0.53581491
11     -0.30705336
12     -0.23422508
13     -0.00913506
14      0.08671254
15     -0.34862627
16      0.00666346
17      0.07048726
18     -0.01148381
19     -0.02884312
20     -0.02370253
21     -0.44193769
22      0.28069598
23     -0.22027599
24     -0.20576156
25      0.53836483
26     -0.45811755
27     -0.07811280
28     -0.23431816
29      0.08163439
30     -0.28052470
31     -0.11946096
32     -0.20405493
33      0.04473491
34      0.15243581
35      0.12813681
36      0.16946760
37     -0.05376195
38     -0.08554555
Sym= C1
Ene=      1.87773234
Spin= Alpha
Occup=      0.00000000
1      0.01933722
2      0.08894456
3      0.01617731
4      0.00811548
5     -0.02266250
6     -0.43622339
7     -0.15923974
8      0.30880489
9     -0.05836408
10      0.50514239
11     -0.38912293
12     -0.09651497
13      0.29195203
14      0.36864628
15     -0.24510968
16      0.01867792
17      0.05987443
18     -0.00367643
19     -0.02560132
20      0.04512138
21     -0.39425708
22      0.19060510
23     -0.37333834
24      0.07870588
25     -0.39428710
26      0.27218136
27      0.13044881
28      0.46367351
29      0.21015487
30      0.26212288
31      0.17418774
32     -0.01963809
33      0.26982865
34      0.19283430
35      0.30476185
36      0.25273819
37      0.15649269
38     -0.02926230
Sym= C1
Ene=      2.00548851
Spin= Alpha
Occup=      0.00000000
1      0.03420860
2      0.11628424
3     -0.01341193
4      0.06805784
5     -0.02763384
6     -0.78618661
7      0.19337145
8     -0.13950051
9     -0.08912544
10     -0.29335941
11      0.13524655
12      0.21707249
13      0.52145892
14      0.19911287
15      0.38205203
16      0.03027198
17      0.05662126
18     -0.03425183
19     -0.02105088
20      0.11280438
21     -0.31413197
22     -0.18028017
23     -0.09213206
24      0.42882140
25      0.51784767
26     -0.34205535
27     -0.12651695
28      0.33828142
29      0.33552598
30     -0.18396100
31      0.34149733
32      0.16930964
33      0.32981512
34     -0.04128240
35      0.27582257
36      0.10310362
37      0.44082831
38      0.18500389
Sym= C1
Ene=      2.13983446
Spin= Alpha
Occup=      0.00000000
1     -0.02451210
2     -0.22446535
3     -0.18728368
4      0.09417972
5      0.16729741
6      0.29130264
7     -0.19748386
8      0.30126732
9     -0.19241367
10      0.03610216
11     -0.56536563
12      0.40828089
13      0.06596996
14     -0.46655211
15      0.03005670
16     -0.01810009
17     -0.14769371
18     -0.16784852
19      0.29908475
20     -0.00548952
21     -0.05404448
22      0.00818659
23     -0.07396213
24      0.21210417
25     -0.29532092
26      0.23529647
27     -0.05915022
28     -0.05386065
29      0.32024887
30     -0.47196296
31     -0.45429039
32     -0.00001844
33      0.49087903
34     -0.07045068
35     -0.39262562
36      0.16885236
37      0.50387336
38     -0.14280185
Sym= C1
Ene=      2.24092135
Spin= Alpha
Occup=      0.00000000
1      0.04407652
2      0.30697163
3     -0.04823816
4      0.22112736
5     -0.20487008
6     -0.16486353
7     -0.14859763
8     -0.11076804
9      0.28317128
10      0.51421653
11     -0.08578738
12     -0.14244251
13     -0.12301132
14     -0.03309906
15      0.57924747
16      0.04335973
17      0.28830251
18     -0.14380981
19      0.01364351
20      0.24900883
21     -0.25742765
22      0.12495712
23      0.25466922
24     -0.42433602
25      0.28238003
26      0.37150143
27     -0.36730026
28     -0.29724328
29      0.26996900
30      0.40363918
31     -0.36143631
32      0.14086812
33      0.18076004
34     -0.02364917
35     -0.36881193
36      0.11561655
37      0.12669292
38     -0.13503352
Sym= C1
Ene=      2.39906484
Spin= Alpha
Occup=      0.00000000
1     -0.04117153
2     -0.24024199
3     -0.02070906
4     -0.07292944
5      0.05447068
6      1.35484227
7     -0.19935044
8      0.27128562
9     -0.19051666
10     -0.02641518
11      0.10551348
12     -0.11920841
13     -0.73741562
14     -0.25657607
15     -0.01985673
16      0.05435087
17      0.24104743
18      0.01888275
19     -0.10282936
20      0.13587048
21     -1.56281970
22      0.26285045
23     -0.05244909
24     -0.22075306
25      0.15802917
26     -0.23578008
27      0.17896781
28      0.59494861
29      0.49664080
30      0.07119909
31     -0.45212010
32     -0.10419610
33     -0.40294593
34      0.09320386
35      0.57386531
36      0.16345519
37      0.37237356
38      0.00584161
Sym= C1
Ene=      2.52418241
Spin= Alpha
Occup=      0.00000000
1      0.00648540
2      0.03067051
3     -0.10070356
4     -0.09148132
5     -0.09154454
6     -0.22015245
7     -0.17982744
8     -0.20878375
9     -0.08252235
10     -0.25115996
11     -0.36889426
12      0.62541741
13     -0.34474434
14      0.61330160
15      0.14578720
16     -0.01083539
17     -0.03360817
18      0.15251367
19      0.07531427
20      0.03422047
21      0.26812541
22      0.16262652
23      0.14481371
24      0.19271646
25     -0.23989564
26     -0.40754772
27      0.61548328
28     -0.51339411
29      0.43219544
30      0.18149649
31      0.15864786
32     -0.03791789
33     -0.00292419
34      0.00062124
35     -0.03907898
36     -0.04940649
37     -0.12776172
38      0.05272108
Sym= C1
Ene=      2.88524313
Spin= Alpha
Occup=      0.00000000
1      0.04937078
2     -0.47400501
3     -0.19924895
4     -0.40559241
5      0.79173194
6     -2.17595964
7     -0.09457709
8     -0.77960016
9      1.02440381
10      0.40258083
11      0.35154811
12     -0.77141473
13     -0.23235046
14      0.49337288
15      0.64820537
16     -0.05131745
17      0.52183471
18     -0.14503940
19     -0.46657792
20      0.76189315
21      2.13344115
22     -0.33441591
23     -0.49930189
24      1.13634630
25     -0.55218868
26      0.13383540
27      0.41988694
28      0.05439460
29     -0.05425854
30     -0.98177329
31      0.11553000
32     -0.04075630
33     -0.13464538
34     -0.13704683
35     -0.22953491
36      0.10829620
37      0.15268293
38      0.14270036
Sym= C1
Ene=      2.98585134
Spin= Alpha
Occup=      0.00000000
1     -0.02105767
2      0.24180985
3     -0.01559340
4      0.27985830
5     -0.24871930
6      0.60510207
7      0.38060953
8     -0.20447999
9     -0.33584271
10     -0.43543177
11      0.52319478