[Molden Format]
[Atoms] AU
C  1 6  -3.82310099  -1.09867432   0.00000000
C  2 6  -2.51242500   3.93687483   0.00000000
C  3 6   2.14679952   5.04805565   0.00000000
C  4 6   4.80418151  -3.18029339   0.00000000
C  5 6  -6.44218392   7.53700707   0.00000000
N  6 7   5.67506880   1.65113274   0.00000000
N  7 7   0.02139619  -4.25631697   0.00000000
O  8 8   7.93201298  -6.13153248   0.00000000
O  9 8  -7.87137509  -2.59106303   0.00000000
H  10 1   9.12881012   2.57411625   0.00000000
H  11 1  -0.79029527  -7.74965546   0.00000000
H  12 1  -5.02656217  11.14760530   0.00000000
H  13 1  -8.71751127   7.09999432  -3.11477951
H  14 1  -8.71751127   7.09999432   3.11477951
H  15 1   3.38990797   8.68421407   0.00000000
[GTO]
1
s 6
    3.047524902344e+03     1.834737136960e-03
    4.573695068359e+02     1.403732318431e-02
    1.039486846924e+02     6.884261965752e-02
    2.921015548706e+01     2.321844398975e-01
    9.286663055420e+00     4.679413437843e-01
    3.163927078247e+00     3.623119890690e-01
s 3
    7.868272304535e+00    -1.193324178457e-01
    1.881288528442e+00    -1.608541458845e-01
    5.442492365837e-01     1.143456459045e+00
p 3
    7.868272304535e+00     6.899906694889e-02
    1.881288528442e+00     3.164239525795e-01
    5.442492365837e-01     7.443082928658e-01
s 1
    1.687144786119e-01     1.000000000000e+00
p 1
    1.687144786119e-01     1.000000000000e+00
d 1
    8.000000119209e-01     1.000000000000e+00

2
s 6
    3.047524902344e+03     1.834737136960e-03
    4.573695068359e+02     1.403732318431e-02
    1.039486846924e+02     6.884261965752e-02
    2.921015548706e+01     2.321844398975e-01
    9.286663055420e+00     4.679413437843e-01
    3.163927078247e+00     3.623119890690e-01
s 3
    7.868272304535e+00    -1.193324178457e-01
    1.881288528442e+00    -1.608541458845e-01
    5.442492365837e-01     1.143456459045e+00
p 3
    7.868272304535e+00     6.899906694889e-02
    1.881288528442e+00     3.164239525795e-01
    5.442492365837e-01     7.443082928658e-01
s 1
    1.687144786119e-01     1.000000000000e+00
p 1
    1.687144786119e-01     1.000000000000e+00
d 1
    8.000000119209e-01     1.000000000000e+00

3
s 6
    3.047524902344e+03     1.834737136960e-03
    4.573695068359e+02     1.403732318431e-02
    1.039486846924e+02     6.884261965752e-02
    2.921015548706e+01     2.321844398975e-01
    9.286663055420e+00     4.679413437843e-01
    3.163927078247e+00     3.623119890690e-01
s 3
    7.868272304535e+00    -1.193324178457e-01
    1.881288528442e+00    -1.608541458845e-01
    5.442492365837e-01     1.143456459045e+00
p 3
    7.868272304535e+00     6.899906694889e-02
    1.881288528442e+00     3.164239525795e-01
    5.442492365837e-01     7.443082928658e-01
s 1
    1.687144786119e-01     1.000000000000e+00
p 1
    1.687144786119e-01     1.000000000000e+00
d 1
    8.000000119209e-01     1.000000000000e+00

4
s 6
    3.047524902344e+03     1.834737136960e-03
    4.573695068359e+02     1.403732318431e-02
    1.039486846924e+02     6.884261965752e-02
    2.921015548706e+01     2.321844398975e-01
    9.286663055420e+00     4.679413437843e-01
    3.163927078247e+00     3.623119890690e-01
s 3
    7.868272304535e+00    -1.193324178457e-01
    1.881288528442e+00    -1.608541458845e-01
    5.442492365837e-01     1.143456459045e+00
p 3
    7.868272304535e+00     6.899906694889e-02
    1.881288528442e+00     3.164239525795e-01
    5.442492365837e-01     7.443082928658e-01
s 1
    1.687144786119e-01     1.000000000000e+00
p 1
    1.687144786119e-01     1.000000000000e+00
d 1
    8.000000119209e-01     1.000000000000e+00

5
s 6
    3.047524902344e+03     1.834737136960e-03
    4.573695068359e+02     1.403732318431e-02
    1.039486846924e+02     6.884261965752e-02
    2.921015548706e+01     2.321844398975e-01
    9.286663055420e+00     4.679413437843e-01
    3.163927078247e+00     3.623119890690e-01
s 3
    7.868272304535e+00    -1.193324178457e-01
    1.881288528442e+00    -1.608541458845e-01
    5.442492365837e-01     1.143456459045e+00
p 3
    7.868272304535e+00     6.899906694889e-02
    1.881288528442e+00     3.164239525795e-01
    5.442492365837e-01     7.443082928658e-01
s 1
    1.687144786119e-01     1.000000000000e+00
p 1
    1.687144786119e-01     1.000000000000e+00
d 1
    8.000000119209e-01     1.000000000000e+00

6
s 6
    4.173511230469e+03     1.834772177972e-03
    6.274578857422e+02     1.399462670088e-02
    1.429020996094e+02     6.858655065298e-02
    4.023432922363e+01     2.322408705950e-01
    1.282021331787e+01     4.690699577332e-01
    4.390437126160e+00     3.604551851749e-01
s 3
    1.162636184692e+01    -1.149611845613e-01
    2.716279745102e+00    -1.691174805164e-01
    7.722184062004e-01     1.145851969719e+00
p 3
    1.162636184692e+01     6.757974624634e-02
    2.716279745102e+00     3.239072859287e-01
    7.722184062004e-01     7.408951520920e-01
s 1
    2.120314985514e-01     1.000000000000e+00
p 1
    2.120314985514e-01     1.000000000000e+00
d 1
    8.000000119209e-01     1.000000000000e+00

7
s 6
    4.173511230469e+03     1.834772177972e-03
    6.274578857422e+02     1.399462670088e-02
    1.429020996094e+02     6.858655065298e-02
    4.023432922363e+01     2.322408705950e-01
    1.282021331787e+01     4.690699577332e-01
    4.390437126160e+00     3.604551851749e-01
s 3
    1.162636184692e+01    -1.149611845613e-01
    2.716279745102e+00    -1.691174805164e-01
    7.722184062004e-01     1.145851969719e+00
p 3
    1.162636184692e+01     6.757974624634e-02
    2.716279745102e+00     3.239072859287e-01
    7.722184062004e-01     7.408951520920e-01
s 1
    2.120314985514e-01     1.000000000000e+00
p 1
    2.120314985514e-01     1.000000000000e+00
d 1
    8.000000119209e-01     1.000000000000e+00

8
s 6
    5.484671875000e+03     1.831074478105e-03
    8.252349243164e+02     1.395017188042e-02
    1.880469512939e+02     6.844507902861e-02
    5.296450042725e+01     2.327143400908e-01
    1.689756965637e+01     4.701929092407e-01
    5.799635410309e+00     3.585208654404e-01
s 3
    1.553961658478e+01    -1.107775494456e-01
    3.599933624268e+00    -1.480262577534e-01
    1.013761758804e+00     1.130766987801e+00
p 3
    1.553961658478e+01     7.087426632643e-02
    3.599933624268e+00     3.397528529167e-01
    1.013761758804e+00     7.271586060524e-01
s 1
    2.700058221817e-01     1.000000000000e+00
p 1
    2.700058221817e-01     1.000000000000e+00
d 1
    8.000000119209e-01     1.000000000000e+00

9
s 6
    5.484671875000e+03     1.831074478105e-03
    8.252349243164e+02     1.395017188042e-02
    1.880469512939e+02     6.844507902861e-02
    5.296450042725e+01     2.327143400908e-01
    1.689756965637e+01     4.701929092407e-01
    5.799635410309e+00     3.585208654404e-01
s 3
    1.553961658478e+01    -1.107775494456e-01
    3.599933624268e+00    -1.480262577534e-01
    1.013761758804e+00     1.130766987801e+00
p 3
    1.553961658478e+01     7.087426632643e-02
    3.599933624268e+00     3.397528529167e-01
    1.013761758804e+00     7.271586060524e-01
s 1
    2.700058221817e-01     1.000000000000e+00
p 1
    2.700058221817e-01     1.000000000000e+00
d 1
    8.000000119209e-01     1.000000000000e+00

10
s 3
    1.873113632202e+01     3.349460288882e-02
    2.825394392014e+00     2.347269505262e-01
    6.401216983795e-01     8.137573003769e-01
s 1
    1.612777560949e-01     1.000000000000e+00

11
s 3
    1.873113632202e+01     3.349460288882e-02
    2.825394392014e+00     2.347269505262e-01
    6.401216983795e-01     8.137573003769e-01
s 1
    1.612777560949e-01     1.000000000000e+00

12
s 3
    1.873113632202e+01     3.349460288882e-02
    2.825394392014e+00     2.347269505262e-01
    6.401216983795e-01     8.137573003769e-01
s 1
    1.612777560949e-01     1.000000000000e+00

13
s 3
    1.873113632202e+01     3.349460288882e-02
    2.825394392014e+00     2.347269505262e-01
    6.401216983795e-01     8.137573003769e-01
s 1
    1.612777560949e-01     1.000000000000e+00

14
s 3
    1.873113632202e+01     3.349460288882e-02
    2.825394392014e+00     2.347269505262e-01
    6.401216983795e-01     8.137573003769e-01
s 1
    1.612777560949e-01     1.000000000000e+00

15
s 3
    1.873113632202e+01     3.349460288882e-02
    2.825394392014e+00     2.347269505262e-01
    6.401216983795e-01     8.137573003769e-01
s 1
    1.612777560949e-01     1.000000000000e+00

[MO]
Sym= C1
Ene=    -19.77175671
Spin= Alpha
Occup=      1.00000000
1      0.00000056
2      0.00000122
3      0.00000205
4     -0.00000058
5      0.00000000
6     -0.00000685
7     -0.00000665
8      0.00000203
9     -0.00000000
10      0.00000089
11      0.00000137
12      0.00000190
13      0.00000082
14     -0.00000000
15      0.00000000
16     -0.00000009
17     -0.00000008
18     -0.00000070
19      0.00000094
20      0.00000000
21      0.00000088
22      0.00000142
23     -0.00000253
24     -0.00000000
25     -0.00000033
26     -0.00000021
27     -0.00000032
28     -0.00000015
29      0.00000000
30     -0.00000000
31      0.00000064
32      0.00000172
33      0.00000151
34     -0.00000144
35     -0.00000000
36     -0.00000838
37     -0.00000476
38      0.00000545
39      0.00000000
40      0.00000123
41      0.00000101
42      0.00000219
43      0.00000109
44     -0.00000000
45     -0.00000000
46     -0.00001413
47     -0.00009676
48     -0.00001411
49      0.00001603
50      0.00000000
51      0.00025170
52      0.00016910
53     -0.00014245
54      0.00000000
55      0.00001652
56      0.00000820
57     -0.00003030
58     -0.00005020
59      0.00000000
60     -0.00000000
61     -0.00000008
62     -0.00000016
63     -0.00000021
64      0.00000013
65     -0.00000000
66      0.00000095
67      0.00000066
68     -0.00000044
69      0.00000000
70     -0.00000014
71     -0.00000018
72     -0.00000025
73     -0.00000010
74      0.00000000
75     -0.00000000
76      0.00000014
77     -0.00000159
78      0.00000867
79     -0.00000379
80     -0.00000000
81      0.00000367
82     -0.00002561
83      0.00000421
84     -0.00000000
85      0.00000156
86      0.00000048
87      0.00000027
88      0.00000369
89      0.00000000
90      0.00000000
91     -0.00000076
92     -0.00000301
93      0.00000196
94     -0.00000844
95     -0.00000000
96      0.00001402
97      0.00000280
98      0.00002488
99     -0.00000000
100     -0.00000069
101     -0.00000106
102     -0.00000253
103      0.00000387
104     -0.00000000
105     -0.00000000
106     -0.99431119
107     -0.02227789
108      0.00005230
109     -0.00005692
110      0.00000000
111     -0.00517169
112      0.00008942
113     -0.00008479
114     -0.00000000
115      0.00532613
116      0.00495308
117      0.00553031
118     -0.00023394
119     -0.00000000
120     -0.00000000
121     -0.00000015
122      0.00000042
123      0.00000010
124      0.00000025
125     -0.00000000
126     -0.00000191
127     -0.00000064
128     -0.00000086
129      0.00000000
130      0.00000032
131      0.00000031
132      0.00000044
133     -0.00000023
134      0.00000000
135      0.00000000
136      0.00000034
137      0.00000693
138      0.00000015
139      0.00000630
140      0.00000002
141     -0.00000008
142      0.00000001
143     -0.00000001
144      0.00000001
145     -0.00000001
146     -0.00000016
147      0.00000006
Sym= C1
Ene=    -19.76612154
Spin= Alpha
Occup=      1.00000000
1      0.00001322
2      0.00009593
3     -0.00002130
4     -0.00001139
5     -0.00000000
6     -0.00024156
7      0.00019585
8      0.00007332
9     -0.00000000
10     -0.00004424
11      0.00001836
12      0.00002878
13     -0.00002901
14      0.00000000
15      0.00000000
16      0.00000064
17      0.00000357
18      0.00001000
19     -0.00000224
20     -0.00000000
21     -0.00001286
22     -0.00002526
23      0.00001274
24     -0.00000000
25      0.00000204
26     -0.00000145
27      0.00000206
28      0.00000093
29      0.00000000
30      0.00000000
31     -0.00000081
32     -0.00000243
33      0.00000201
34      0.00000080
35      0.00000000
36      0.00001163
37     -0.00000910
38     -0.00000393
39      0.00000000
40     -0.00000020
41     -0.00000225
42     -0.00000257
43      0.00000101
44      0.00000000
45     -0.00000000
46     -0.00000055
47     -0.00000130
48      0.00000194
49     -0.00000011
50     -0.00000000
51      0.00000688
52     -0.00000679
53      0.00000038
54      0.00000000
55     -0.00000030
56     -0.00000175
57     -0.00000185
58      0.00000033
59      0.00000000
60     -0.00000000
61      0.00000069
62      0.00000142
63      0.00000152
64     -0.00000163
65      0.00000000
66     -0.00000873
67     -0.00000507
68      0.00000543
69     -0.00000000
70      0.00000149
71      0.00000145
72      0.00000227
73      0.00000095
74     -0.00000000
75      0.00000000
76      0.00000012
77      0.00000016
78     -0.00000079
79     -0.00000035
80      0.00000000
81     -0.00000121
82      0.00000204
83      0.00000114
84      0.00000000
85      0.00000023
86      0.00000047
87      0.00000045
88     -0.00000013
89     -0.00000000
90      0.00000000
91      0.00000001
92      0.00000126
93      0.00000601
94      0.00000549
95     -0.00000000
96     -0.00000364
97     -0.00001366
98     -0.00001776
99      0.00000000
100      0.00000196
101     -0.00000323
102     -0.00000005
103      0.00000121
104     -0.00000000
105      0.00000000
106     -0.00000036
107     -0.00000037
108     -0.00000004
109     -0.00000024
110     -0.00000000
111      0.00000164
112     -0.00000014
113      0.00000097
114     -0.00000000
115     -0.00000041
116     -0.00000010
117     -0.00000036
118     -0.00000013
119      0.00000000
120     -0.00000000
121      0.99430573
122      0.02230283
123      0.00010724
124      0.00003106
125      0.00000000
126      0.00516631
127      0.00009497
128      0.00003785
129     -0.00000000
130     -0.00541280
131     -0.00552706
132     -0.00487528
133      0.00005012
134      0.00000000
135      0.00000000
136     -0.00000008
137     -0.00000047
138      0.00000021
139     -0.00000661
140     -0.00000006
141      0.00000007
142      0.00000001
143      0.00000023
144      0.00000001
145      0.00000023
146      0.00000013
147      0.00000062
Sym= C1
Ene=    -14.96279537
Spin= Alpha
Occup=      1.00000000
1      0.00001285
2      0.00005204
3      0.00002398
4     -0.00001135
5     -0.00000000
6     -0.00016960
7     -0.00012687
8      0.00006795
9     -0.00000000
10     -0.00000077
11      0.00001297
12      0.00003334
13      0.00002961
14     -0.00000000
15      0.00000000
16     -0.00000134
17     -0.00000221
18     -0.00000583
19      0.00000557
20     -0.00000000
21      0.00001480
22      0.00001709
23     -0.00001412
24     -0.00000000
25     -0.00000386
26     -0.00000168
27     -0.00000412
28     -0.00000093
29     -0.00000000
30     -0.00000000
31      0.00000111
32      0.00000271
33     -0.00000109
34     -0.00000356
35      0.00000000
36     -0.00001438
37      0.00000463
38      0.00001100
39     -0.00000000
40      0.00000149
41      0.00000254
42      0.00000356
43     -0.00000001
44     -0.00000000
45      0.00000000
46      0.00001421
47      0.00006030
48     -0.00003092
49      0.00000181
50     -0.00000000
51     -0.00019245
52      0.00016088
53      0.00000960
54     -0.00000000
55     -0.00002080
56      0.00003245
57      0.00003528
58     -0.00001415
59      0.00000000
60     -0.00000000
61     -0.00000046
62     -0.00000117
63     -0.00000125
64      0.00000071
65     -0.00000000
66      0.00000613
67      0.00000412
68     -0.00000286
69      0.00000000
70     -0.00000087
71     -0.00000095
72     -0.00000151
73     -0.00000067
74      0.00000000
75     -0.00000000
76     -0.00000366
77     -0.00000346
78      0.00000665
79      0.00000293
80      0.00000000
81      0.00001962
82     -0.00001990
83     -0.00000741
84      0.00000000
85     -0.00000457
86     -0.00000376
87     -0.00000606
88      0.00000329
89     -0.00000000
90     -0.00000000
91      0.99308421
92      0.03269744
93     -0.00015046
94     -0.00028509
95     -0.00000000
96      0.00292067
97      0.00007478
98      0.00013352
99      0.00000000
100     -0.00710085
101     -0.00718187
102     -0.00707728
103     -0.00002948
104      0.00000000
105      0.00000000
106      0.00000097
107      0.00000448
108      0.00000342
109      0.00000455
110     -0.00000000
111     -0.00001982
112     -0.00000337
113     -0.00001699
114      0.00000000
115      0.00000637
116     -0.00000177
117      0.00000347
118      0.00000153
119     -0.00000000
120      0.00000000
121      0.00000078
122      0.00000347
123     -0.00000077
124      0.00000428
125      0.00000000
126     -0.00001621
127     -0.00000212
128     -0.00001546
129      0.00000000
130      0.00000387
131      0.00000007
132      0.00000278
133     -0.00000403
134      0.00000000
135      0.00000000
136      0.00000137
137      0.00000239
138      0.00001323
139     -0.00009108
140      0.00000009
141     -0.00000045
142      0.00000007
143     -0.00000010
144      0.00000007
145     -0.00000010
146      0.00000005
147     -0.00000225
Sym= C1
Ene=    -14.91638362
Spin= Alpha
Occup=      1.00000000
1     -0.00000001
2      0.00000010
3     -0.00000075
4     -0.00000022
5      0.00000000
6     -0.00000009
7      0.00000185
8      0.00000055
9     -0.00000000
10     -0.00000009
11     -0.00000008
12     -0.00000002
13      0.00000003
14      0.00000000
15      0.00000000
16      0.00000061
17      0.00000129
18      0.00000143
19      0.00000078
20     -0.00000000
21     -0.00000724
22     -0.00000555
23     -0.00000079
24      0.00000000
25      0.00000011
26      0.00000171
27      0.00000172
28      0.00000005
29      0.00000000
30      0.00000000
31     -0.00000138
32     -0.00002916
33      0.00000360
34      0.00000031
35     -0.00000000
36      0.00003293
37     -0.00000007
38     -0.00001621
39     -0.00000000
40      0.00001104
41      0.00001365
42      0.00000159
43     -0.00001042
44     -0.00000000
45      0.00000000
46     -0.00000171
47     -0.00003111
48      0.00000686
49      0.00000010
50      0.00000000
51      0.00004576
52     -0.00000235
53      0.00002338
54      0.00000000
55      0.00000058
56      0.00001987
57     -0.00000045
58      0.00000345
59     -0.00000000
60      0.00000000
61      0.00000001
62      0.00000008
63     -0.00000021
64     -0.00000018
65      0.00000000
66     -0.00000020
67      0.00000035
68      0.00000051
69     -0.00000000
70      0.00000003
71     -0.00000005
72      0.00000001
73      0.00000005
74      0.00000000
75     -0.00000000
76     -0.99420121
77     -0.02812100
78     -0.00024214
79     -0.00008633
80      0.00000000
81     -0.00133647
82      0.00012403
83      0.00004866
84      0.00000000
85      0.00595958
86      0.00569931
87      0.00524037
88      0.00008501
89     -0.00000000
90      0.00000000
91     -0.00000148
92      0.00000138
93      0.00000117
94      0.00000034
95      0.00000000
96     -0.00000622
97     -0.00000347
98     -0.00000122
99     -0.00000000
100      0.00000061
101      0.00000138
102      0.00000171
103     -0.00000076
104     -0.00000000
105      0.00000000
106      0.00000013
107     -0.00000004
108     -0.00000106
109      0.00000080
110      0.00000000
111     -0.00000073
112     -0.00000133
113     -0.00000121
114     -0.00000000
115      0.00000108
116     -0.00000012
117      0.00000052
118     -0.00000001
119      0.00000000
120      0.00000000
121     -0.00000010
122     -0.00000035
123     -0.00000016
124     -0.00000006
125     -0.00000000
126      0.00000149
127      0.00000067
128      0.00000026
129      0.00000000
130     -0.00000020
131     -0.00000036
132     -0.00000039
133      0.00000008
134      0.00000000
135     -0.00000000
136     -0.00001090
137     -0.00005317
138     -0.00000032
139      0.00000047
140     -0.00000001
141     -0.00000019
142     -0.00000000
143      0.00000011
144     -0.00000000
145      0.00000011
146     -0.00000094
147      0.00000368
Sym= C1
Ene=    -10.77815829
Spin= Alpha
Occup=      1.00000000
1      0.99433792
2      0.03661212
3     -0.00018641
4     -0.00020870
5     -0.00000000
6     -0.00582941
7      0.00012881
8      0.00014479
9      0.00000000
10     -0.00577916
11     -0.00663245
12     -0.00631666
13      0.00074692
14      0.00000000
15      0.00000000
16     -0.00002544
17     -0.00013516
18      0.00004287
19      0.00013693
20     -0.00000000
21      0.00060314
22     -0.00015041
23     -0.00052248
24     -0.00000000
25     -0.00013695
26     -0.00002407
27     -0.00014407
28      0.00003406
29      0.00000000
30      0.00000000
31     -0.00007830
32     -0.00000452
33      0.00000508
34     -0.00002761
35     -0.00000000
36      0.00000974
37     -0.00002800
38      0.00007814
39     -0.00000000
40      0.00000700
41     -0.00000205
42      0.00000222
43     -0.00000715
44      0.00000000
45     -0.00000000
46     -0.00001061
47     -0.00000960
48     -0.00000245
49      0.00002355
50      0.00000000
51      0.00003520
52     -0.00000595
53     -0.00006764
54      0.00000000
55      0.00000126
56     -0.00000409
57     -0.00000677
58      0.00000479
59     -0.00000000
60     -0.00000000
61     -0.00000010
62     -0.00000201
63     -0.00001148
64     -0.00001664
65     -0.00000000
66      0.00000296
67      0.00003635
68      0.00003736
69     -0.00000000
70      0.00000717
71     -0.00000215
72      0.00000021
73     -0.00000021
74     -0.00000000
75      0.00000000
76     -0.00000467
77     -0.00001085
78      0.00000678
79      0.00000077
80     -0.00000000
81      0.00006049
82     -0.00002405
83     -0.00000363
84     -0.00000000
85     -0.00001228
86     -0.00000928
87     -0.00001621
88     -0.00000254
89     -0.00000000
90      0.00000000
91     -0.00005959
92     -0.00015182
93      0.00010484
94     -0.00007258
95      0.00000000
96      0.00075073
97     -0.00043643
98      0.00031703
99     -0.00000000
100     -0.00010704
101     -0.00014096
102     -0.00020175
103     -0.00008916
104      0.00000000
105     -0.00000000
106      0.00000286
107      0.00001019
108     -0.00000522
109      0.00000192
110     -0.00000000
111     -0.00004284
112      0.00001985
113     -0.00000953
114      0.00000000
115      0.00000604
116      0.00001007
117      0.00001116
118      0.00000349
119      0.00000000
120     -0.00000000
121     -0.00005965
122     -0.00024567
123      0.00000394
124      0.00000271
125     -0.00000000
126      0.00098173
127      0.00044301
128      0.00015051
129     -0.00000000
130     -0.00006822
131     -0.00018416
132     -0.00019567
133      0.00004944
134     -0.00000000
135     -0.00000000
136      0.00000005
137      0.00000142
138     -0.00000878
139      0.00000238
140     -0.00000034
141     -0.00001463
142     -0.00000061
143      0.00000883
144     -0.00000061
145      0.00000883
146      0.00000131
147     -0.00002377
Sym= C1
Ene=    -10.77734366
Spin= Alpha
Occup=      1.00000000
1     -0.00007796
2      0.00000118
3     -0.00002803
4      0.00000249
5      0.00000000
6     -0.00001321
7      0.00007507
8     -0.00001357
9     -0.00000000
10      0.00000114
11     -0.00000303
12      0.00000129
13      0.00000317
14      0.00000000
15     -0.00000000
16     -0.00019318
17      0.00020017
18      0.00008161
19      0.00001318
20     -0.00000000
21     -0.00076249
22     -0.00061539
23     -0.00014602
24      0.00000000
25     -0.00003286
26      0.00013013
27      0.00014081
28     -0.00005237
29      0.00000000
30      0.00000000
31     -0.99378392
32     -0.03983705
33      0.00003705
34     -0.00031023
35      0.00000000
36      0.00573069
37     -0.00013552
38      0.00008400
39     -0.00000000
40      0.00679743
41      0.00682955
42      0.00777083
43      0.00006627
44     -0.00000000
45      0.00000000
46     -0.00001034
47      0.00000225
48      0.00001926
49     -0.00000759
50      0.00000000
51     -0.00000921
52     -0.00005297
53      0.00001166
54      0.00000000
55     -0.00000145
56     -0.00000139
57      0.00000062
58     -0.00000318
59      0.00000000
60      0.00000000
61     -0.00000166
62      0.00000547
63     -0.00001399
64     -0.00001596
65      0.00000000
66     -0.00002246
67      0.00002546
68      0.00005376
69     -0.00000000
70      0.00000535
71     -0.00000374
72      0.00000225
73      0.00000446
74     -0.00000000
75      0.00000000
76      0.00005236
77      0.00015570
78     -0.00006707
79      0.00005112
80     -0.00000000
81     -0.00068105
82      0.00035361
83     -0.00032299
84     -0.00000000
85      0.00009325
86      0.00009844
87      0.00017416
88      0.00009133
89      0.00000000
90     -0.00000000
91      0.00000404
92      0.00000928
93      0.00000058
94      0.00000715
95     -0.00000000
96     -0.00005187
97     -0.00000144
98     -0.00002302
99      0.00000000
100      0.00000804
101      0.00001134
102      0.00001424
103      0.00000171
104      0.00000000
105      0.00000000
106     -0.00000246
107     -0.00000901
108      0.00000212
109     -0.00000364
110     -0.00000000
111      0.00003766
112     -0.00001140
113      0.00001509
114      0.00000000
115     -0.00000769
116     -0.00000610
117     -0.00000963
118     -0.00000327
119      0.00000000
120     -0.00000000
121     -0.00000338
122     -0.00001235
123     -0.00000505
124     -0.00000315
125     -0.00000000
126      0.00005176
127      0.00002253
128      0.00001274
129      0.00000000
130     -0.00000731
131     -0.00001150
132     -0.00001318
133      0.00000401
134      0.00000000
135      0.00000000
136      0.00000142
137     -0.00001532
138     -0.00000017
139     -0.00000176
140      0.00000203
141     -0.00001910
142      0.00000010
143      0.00000875
144      0.00000010
145      0.00000875
146      0.00000466
147     -0.00061225
Sym= C1
Ene=    -10.75374657
Spin= Alpha
Occup=      1.00000000
1      0.00000657
2     -0.00000737
3      0.00001191
4      0.00001756
5      0.00000000
6      0.00002822
7     -0.00002442
8     -0.00005412
9     -0.00000000
10     -0.00000268
11      0.00000051
12     -0.00000562
13     -0.00000382
14      0.00000000
15      0.00000000
16     -0.00001143
17     -0.00000862
18     -0.00000461
19      0.00000475
20      0.00000000
21      0.00004176
22      0.00001779
23     -0.00001551
24      0.00000000
25     -0.00000472
26     -0.00000589
27     -0.00000932
28      0.00000184
29     -0.00000000
30     -0.00000000
31     -0.00001089
32     -0.00000121
33     -0.00001213
34     -0.00001317
35      0.00000000
36      0.00000304
37      0.00004609
38      0.00002796
39      0.00000000
40      0.00000529
41     -0.00000158
42      0.00000091
43     -0.00000253
44     -0.00000000
45      0.00000000
46      0.99368556
47      0.04043943
48      0.00012592
49     -0.00016260
50     -0.00000000
51     -0.00566598
52     -0.00006381
53      0.00011395
54      0.00000000
55     -0.00802928
56     -0.00713590
57     -0.00670734
58     -0.00026137
59     -0.00000000
60     -0.00000000
61     -0.00000271
62     -0.00000073
63     -0.00000030
64      0.00000038
65     -0.00000000
66      0.00000289
67      0.00000158
68     -0.00000168
69      0.00000000
70     -0.00000025
71     -0.00000030
72     -0.00000056
73     -0.00000035
74     -0.00000000
75     -0.00000000
76     -0.00005280
77     -0.00015350
78      0.00001510
79      0.00009158
80     -0.00000000
81      0.00069418
82     -0.00007800
83     -0.00048139
84     -0.00000000
85     -0.00017587
86     -0.00002930
87     -0.00018140
88      0.00003260
89      0.00000000
90      0.00000000
91     -0.00005651
92     -0.00014550
93     -0.00010132
94     -0.00001608
95     -0.00000000
96      0.00071641
97      0.00049809
98      0.00009298
99     -0.00000000
100     -0.00004058
101     -0.00018050
102     -0.00018672
103      0.00003668
104     -0.00000000
105     -0.00000000
106     -0.00006401
107     -0.00024232
108      0.00001015
109     -0.00000985
110     -0.00000000
111      0.00100535
112     -0.00034720
113      0.00031169
114     -0.00000000
115     -0.00013443
116     -0.00015569
117     -0.00020765
118     -0.00007189
119      0.00000000
120     -0.00000000
121      0.00000263
122      0.00000946
123      0.00000494
124      0.00000017
125     -0.00000000
126     -0.00003961
127     -0.00002000
128     -0.00000200
129      0.00000000
130      0.00000421
131      0.00001054
132      0.00001028
133     -0.00000094
134      0.00000000
135     -0.00000000
136     -0.00001071
137      0.00001049
138     -0.00001151
139      0.00000785
140     -0.00000004
141      0.00000009
142      0.00000000
143     -0.00000009
144      0.00000000
145     -0.00000009
146      0.00000058
147     -0.00001465
Sym= C1
Ene=    -10.74872526
Spin= Alpha
Occup=      1.00000000
1     -0.00000030
2      0.00000113
3      0.00002774
4     -0.00000640
5     -0.00000000
6     -0.00000513
7     -0.00007976
8      0.00000388
9      0.00000000
10     -0.00000058
11     -0.00000150
12     -0.00000086
13     -0.00000390
14     -0.00000000
15     -0.00000000
16      0.00004456
17      0.00012477
18     -0.00011473
19      0.00010480
20     -0.00000000
21     -0.00056418
22      0.00041033
23     -0.00037251
24     -0.00000000
25      0.00007671
26      0.00008503
27      0.00014076
28      0.00007034
29     -0.00000000
30     -0.00000000
31      0.00000495
32      0.00000829
33      0.00000851
34     -0.00003125
35      0.00000000
36     -0.00003727
37      0.00000119
38      0.00009339
39      0.00000000
40      0.00000120
41      0.00000090
42      0.00000534
43     -0.00000907
44     -0.00000000
45     -0.00000000
46     -0.00000242
47     -0.00000013
48     -0.00000205
49      0.00000220
50     -0.00000000
51     -0.00000076
52      0.00000518
53     -0.00000590
54      0.00000000
55      0.00000064
56      0.00000030
57      0.00000040
58      0.00000017
59     -0.00000000
60     -0.00000000
61     -0.99436117
62     -0.03640859
63     -0.00013060
64     -0.00032386
65     -0.00000000
66      0.00601775
67     -0.00003362
68      0.00016782